 CRYSTAL
 PRIMVEC
    3.440000000    0.000000000    0.000000000
    0.000000000    3.440000000    0.000000000
    0.000000000    0.000000000    3.440000000
 PRIMCOORD
           2           1
Cu        0.000000000    0.000000000    0.000000000
Cu        1.720000000    1.720000000    1.720000000
BEGIN_BLOCK_DATAGRID_3D
3D_PWSCF
DATAGRID_3D_UNKNOWN
          46          46          46
  0.000000  0.000000  0.000000
    3.440000    0.000000    0.000000
    0.000000    3.440000    0.000000
    0.000000    0.000000    3.440000
  0.842436E+01  0.827487E+01  0.769281E+01  0.649579E+01  0.480009E+01  0.305361E+01
  0.170328E+01  0.893469E+00  0.478508E+00  0.267578E+00  0.157471E+00  0.981994E-01
  0.656279E-01  0.463787E-01  0.342900E-01  0.263265E-01  0.211145E-01  0.176241E-01
  0.153008E-01  0.136468E-01  0.125383E-01  0.118555E-01  0.115336E-01  0.115336E-01
  0.118555E-01  0.125383E-01  0.136468E-01  0.153008E-01  0.176241E-01  0.211145E-01
  0.263265E-01  0.342900E-01  0.463787E-01  0.656279E-01  0.981994E-01  0.157471E+00
  0.267578E+00  0.478508E+00  0.893469E+00  0.170328E+01  0.305361E+01  0.480009E+01
  0.649579E+01  0.769281E+01  0.827487E+01  0.842436E+01  0.827487E+01  0.809859E+01
  0.746391E+01  0.624042E+01  0.457309E+01  0.289488E+01  0.161549E+01  0.853240E+00
  0.460802E+00  0.259438E+00  0.153569E+00  0.962551E-01  0.646217E-01  0.458281E-01
  0.339783E-01  0.261158E-01  0.209756E-01  0.175424E-01  0.152441E-01  0.136138E-01
  0.125106E-01  0.118151E-01  0.114905E-01  0.114905E-01  0.118151E-01  0.125106E-01
  0.136138E-01  0.152441E-01  0.175424E-01  0.209756E-01  0.261158E-01  0.339783E-01
  0.458281E-01  0.646217E-01  0.962551E-01  0.153569E+00  0.259438E+00  0.460802E+00
  0.853240E+00  0.161549E+01  0.289488E+01  0.457309E+01  0.624042E+01  0.746391E+01
  0.809859E+01  0.827487E+01  0.769281E+01  0.746391E+01  0.673341E+01  0.548984E+01
  0.393854E+01  0.246460E+01  0.138176E+01  0.745949E+00  0.412597E+00  0.236916E+00
  0.142658E+00  0.908392E-01  0.617987E-01  0.442288E-01  0.330336E-01  0.255488E-01
  0.206452E-01  0.173472E-01  0.151131E-01  0.135300E-01  0.124600E-01  0.117896E-01
  0.114753E-01  0.114753E-01  0.117896E-01  0.124600E-01  0.135300E-01  0.151131E-01
  0.173472E-01  0.206452E-01  0.255488E-01  0.330336E-01  0.442288E-01  0.617987E-01
  0.908392E-01  0.142658E+00  0.236916E+00  0.412597E+00  0.745949E+00  0.138176E+01
  0.246460E+01  0.393854E+01  0.548984E+01  0.673341E+01  0.746391E+01  0.769281E+01
  0.649579E+01  0.624042E+01  0.548984E+01  0.434280E+01  0.303977E+01  0.188542E+01
  0.107580E+01  0.603653E+00  0.346158E+00  0.205027E+00  0.126853E+00  0.828829E-01
  0.575198E-01  0.417674E-01  0.315243E-01  0.246427E-01  0.201003E-01  0.170209E-01
  0.149173E-01  0.134064E-01  0.123756E-01  0.117471E-01  0.114535E-01  0.114535E-01
  0.117471E-01  0.123756E-01  0.134064E-01  0.149173E-01  0.170209E-01  0.201003E-01
  0.246427E-01  0.315243E-01  0.417674E-01  0.575198E-01  0.828829E-01  0.126853E+00
  0.205027E+00  0.346158E+00  0.603653E+00  0.107580E+01  0.188542E+01  0.303977E+01
  0.434280E+01  0.548984E+01  0.624042E+01  0.649579E+01  0.480009E+01  0.457309E+01
  0.393854E+01  0.303977E+01  0.209451E+01  0.130936E+01  0.777137E+00  0.459265E+00
  0.275312E+00  0.169755E+00  0.108801E+00  0.735288E-01  0.522877E-01  0.387387E-01
  0.296614E-01  0.235432E-01  0.194268E-01  0.166052E-01  0.146320E-01  0.132156E-01
  0.122445E-01  0.116470E-01  0.113692E-01  0.113692E-01  0.116470E-01  0.122445E-01
  0.132156E-01  0.146320E-01  0.166052E-01  0.194268E-01  0.235432E-01  0.296614E-01
  0.387387E-01  0.522877E-01  0.735288E-01  0.108801E+00  0.169755E+00  0.275312E+00
  0.459265E+00  0.777137E+00  0.130936E+01  0.209451E+01  0.303977E+01  0.393854E+01
  0.457309E+01  0.480009E+01  0.305361E+01  0.289488E+01  0.246460E+01  0.188542E+01
  0.130936E+01  0.849288E+00  0.534373E+00  0.333970E+00  0.210550E+00  0.135911E+00
  0.909219E-01  0.638745E-01  0.466822E-01  0.353611E-01  0.275357E-01  0.222647E-01
  0.186176E-01  0.161066E-01  0.143046E-01  0.130088E-01  0.121107E-01  0.115655E-01
  0.113106E-01  0.113106E-01  0.115655E-01  0.121107E-01  0.130088E-01  0.143046E-01
  0.161066E-01  0.186176E-01  0.222647E-01  0.275357E-01  0.353611E-01  0.466822E-01
  0.638745E-01  0.909219E-01  0.135911E+00  0.210550E+00  0.333970E+00  0.534373E+00
  0.849288E+00  0.130936E+01  0.188542E+01  0.246460E+01  0.289488E+01  0.305361E+01
  0.170328E+01  0.161549E+01  0.138176E+01  0.107580E+01  0.777137E+00  0.534373E+00
  0.357246E+00  0.236163E+00  0.157135E+00  0.106549E+00  0.748729E-01  0.546564E-01
  0.411581E-01  0.318898E-01  0.253526E-01  0.208964E-01  0.177742E-01  0.155875E-01
  0.139538E-01  0.127765E-01  0.119591E-01  0.114811E-01  0.112551E-01  0.112551E-01
  0.114811E-01  0.119591E-01  0.127765E-01  0.139538E-01  0.155875E-01  0.177742E-01
  0.208964E-01  0.253526E-01  0.318898E-01  0.411581E-01  0.546564E-01  0.748729E-01
  0.106549E+00  0.157135E+00  0.236163E+00  0.357246E+00  0.534373E+00  0.777137E+00
  0.107580E+01  0.138176E+01  0.161549E+01  0.170328E+01  0.893469E+00  0.853240E+00
  0.745949E+00  0.603653E+00  0.459265E+00  0.333970E+00  0.236163E+00  0.165254E+00
  0.116011E+00  0.830537E-01  0.612667E-01  0.463330E-01  0.359651E-01  0.285084E-01
  0.232597E-01  0.195513E-01  0.169543E-01  0.150390E-01  0.135836E-01  0.125264E-01
  0.118043E-01  0.113709E-01  0.111495E-01  0.111495E-01  0.113709E-01  0.118043E-01
  0.125264E-01  0.135836E-01  0.150390E-01  0.169543E-01  0.195513E-01  0.232597E-01
  0.285084E-01  0.359651E-01  0.463330E-01  0.612667E-01  0.830537E-01  0.116011E+00
  0.165254E+00  0.236163E+00  0.333970E+00  0.459265E+00  0.603653E+00  0.745949E+00
  0.853240E+00  0.893469E+00  0.478508E+00  0.460802E+00  0.412597E+00  0.346158E+00
  0.275312E+00  0.210550E+00  0.157135E+00  0.116011E+00  0.860898E-01  0.650548E-01
  0.500190E-01  0.391650E-01  0.312488E-01  0.254261E-01  0.213107E-01  0.182884E-01
  0.161259E-01  0.144508E-01  0.132154E-01  0.122778E-01  0.116669E-01  0.112860E-01
  0.110983E-01  0.110983E-01  0.112860E-01  0.116669E-01  0.122778E-01  0.132154E-01
  0.144508E-01  0.161259E-01  0.182884E-01  0.213107E-01  0.254261E-01  0.312488E-01
  0.391650E-01  0.500190E-01  0.650548E-01  0.860898E-01  0.116011E+00  0.157135E+00
  0.210550E+00  0.275312E+00  0.346158E+00  0.412597E+00  0.460802E+00  0.478508E+00
  0.267578E+00  0.259438E+00  0.236916E+00  0.205027E+00  0.169755E+00  0.135911E+00
  0.106549E+00  0.830537E-01  0.650548E-01  0.513251E-01  0.409630E-01  0.331116E-01
  0.271610E-01  0.227831E-01  0.195237E-01  0.171253E-01  0.153208E-01  0.139190E-01
  0.128621E-01  0.120435E-01  0.115380E-01  0.112073E-01  0.110738E-01  0.110738E-01
  0.112073E-01  0.115380E-01  0.120435E-01  0.128621E-01  0.139190E-01  0.153208E-01
  0.171253E-01  0.195237E-01  0.227831E-01  0.271610E-01  0.331116E-01  0.409630E-01
  0.513251E-01  0.650548E-01  0.830537E-01  0.106549E+00  0.135911E+00  0.169755E+00
  0.205027E+00  0.236916E+00  0.259438E+00  0.267578E+00  0.157471E+00  0.153569E+00
  0.142658E+00  0.126853E+00  0.108801E+00  0.909219E-01  0.748729E-01  0.612667E-01
  0.500190E-01  0.409630E-01  0.337962E-01  0.280912E-01  0.237474E-01  0.204731E-01
  0.179664E-01  0.160977E-01  0.145860E-01  0.134498E-01  0.125622E-01  0.118981E-01
  0.114507E-01  0.111674E-01  0.110442E-01  0.110442E-01  0.111674E-01  0.114507E-01
  0.118981E-01  0.125622E-01  0.134498E-01  0.145860E-01  0.160977E-01  0.179664E-01
  0.204731E-01  0.237474E-01  0.280912E-01  0.337962E-01  0.409630E-01  0.500190E-01
  0.612667E-01  0.748729E-01  0.909219E-01  0.108801E+00  0.126853E+00  0.142658E+00
  0.153569E+00  0.157471E+00  0.981994E-01  0.962551E-01  0.908392E-01  0.828829E-01
  0.735288E-01  0.638745E-01  0.546564E-01  0.463330E-01  0.391650E-01  0.331116E-01
  0.280912E-01  0.241118E-01  0.209741E-01  0.185379E-01  0.166561E-01  0.151540E-01
  0.139521E-01  0.129975E-01  0.122701E-01  0.117455E-01  0.113510E-01  0.111309E-01
  0.110047E-01  0.110047E-01  0.111309E-01  0.113510E-01  0.117455E-01  0.122701E-01
  0.129975E-01  0.139521E-01  0.151540E-01  0.166561E-01  0.185379E-01  0.209741E-01
  0.241118E-01  0.280912E-01  0.331116E-01  0.391650E-01  0.463330E-01  0.546564E-01
  0.638745E-01  0.735288E-01  0.828829E-01  0.908392E-01  0.962551E-01  0.981994E-01
  0.656279E-01  0.646217E-01  0.617987E-01  0.575198E-01  0.522877E-01  0.466822E-01
  0.411581E-01  0.359651E-01  0.312488E-01  0.271610E-01  0.237474E-01  0.209741E-01
  0.187197E-01  0.169695E-01  0.155265E-01  0.143327E-01  0.133942E-01  0.126026E-01
  0.120403E-01  0.116043E-01  0.113045E-01  0.111085E-01  0.110111E-01  0.110111E-01
  0.111085E-01  0.113045E-01  0.116043E-01  0.120403E-01  0.126026E-01  0.133942E-01
  0.143327E-01  0.155265E-01  0.169695E-01  0.187197E-01  0.209741E-01  0.237474E-01
  0.271610E-01  0.312488E-01  0.359651E-01  0.411581E-01  0.466822E-01  0.522877E-01
  0.575198E-01  0.617987E-01  0.646217E-01  0.656279E-01  0.463787E-01  0.458281E-01
  0.442288E-01  0.417674E-01  0.387387E-01  0.353611E-01  0.318898E-01  0.285084E-01
  0.254261E-01  0.227831E-01  0.204731E-01  0.185379E-01  0.169695E-01  0.156379E-01
  0.145371E-01  0.136258E-01  0.128589E-01  0.122748E-01  0.118528E-01  0.115029E-01
  0.112941E-01  0.111131E-01  0.110480E-01  0.110480E-01  0.111131E-01  0.112941E-01
  0.115029E-01  0.118528E-01  0.122748E-01  0.128589E-01  0.136258E-01  0.145371E-01
  0.156379E-01  0.169695E-01  0.185379E-01  0.204731E-01  0.227831E-01  0.254261E-01
  0.285084E-01  0.318898E-01  0.353611E-01  0.387387E-01  0.417674E-01  0.442288E-01
  0.458281E-01  0.463787E-01  0.342900E-01  0.339783E-01  0.330336E-01  0.315243E-01
  0.296614E-01  0.275357E-01  0.253526E-01  0.232597E-01  0.213107E-01  0.195237E-01
  0.179664E-01  0.166561E-01  0.155265E-01  0.145371E-01  0.137102E-01  0.130007E-01
  0.124517E-01  0.120205E-01  0.116925E-01  0.114696E-01  0.112677E-01  0.111481E-01
  0.110873E-01  0.110873E-01  0.111481E-01  0.112677E-01  0.114696E-01  0.116925E-01
  0.120205E-01  0.124517E-01  0.130007E-01  0.137102E-01  0.145371E-01  0.155265E-01
  0.166561E-01  0.179664E-01  0.195237E-01  0.213107E-01  0.232597E-01  0.253526E-01
  0.275357E-01  0.296614E-01  0.315243E-01  0.330336E-01  0.339783E-01  0.342900E-01
  0.263265E-01  0.261158E-01  0.255488E-01  0.246427E-01  0.235432E-01  0.222647E-01
  0.208964E-01  0.195513E-01  0.182884E-01  0.171253E-01  0.160977E-01  0.151540E-01
  0.143327E-01  0.136258E-01  0.130007E-01  0.125106E-01  0.121451E-01  0.118257E-01
  0.115985E-01  0.114510E-01  0.112636E-01  0.112052E-01  0.111202E-01  0.111202E-01
  0.112052E-01  0.112636E-01  0.114510E-01  0.115985E-01  0.118257E-01  0.121451E-01
  0.125106E-01  0.130007E-01  0.136258E-01  0.143327E-01  0.151540E-01  0.160977E-01
  0.171253E-01  0.182884E-01  0.195513E-01  0.208964E-01  0.222647E-01  0.235432E-01
  0.246427E-01  0.255488E-01  0.261158E-01  0.263265E-01  0.211145E-01  0.209756E-01
  0.206452E-01  0.201003E-01  0.194268E-01  0.186176E-01  0.177742E-01  0.169543E-01
  0.161259E-01  0.153208E-01  0.145860E-01  0.139521E-01  0.133942E-01  0.128589E-01
  0.124517E-01  0.121451E-01  0.118584E-01  0.116757E-01  0.115027E-01  0.113825E-01
  0.112814E-01  0.112247E-01  0.111836E-01  0.111836E-01  0.112247E-01  0.112814E-01
  0.113825E-01  0.115027E-01  0.116757E-01  0.118584E-01  0.121451E-01  0.124517E-01
  0.128589E-01  0.133942E-01  0.139521E-01  0.145860E-01  0.153208E-01  0.161259E-01
  0.169543E-01  0.177742E-01  0.186176E-01  0.194268E-01  0.201003E-01  0.206452E-01
  0.209756E-01  0.211145E-01  0.176241E-01  0.175424E-01  0.173472E-01  0.170209E-01
  0.166052E-01  0.161066E-01  0.155875E-01  0.150390E-01  0.144508E-01  0.139190E-01
  0.134498E-01  0.129975E-01  0.126026E-01  0.122748E-01  0.120205E-01  0.118257E-01
  0.116757E-01  0.115733E-01  0.114327E-01  0.113597E-01  0.112944E-01  0.112446E-01
  0.112506E-01  0.112506E-01  0.112446E-01  0.112944E-01  0.113597E-01  0.114327E-01
  0.115733E-01  0.116757E-01  0.118257E-01  0.120205E-01  0.122748E-01  0.126026E-01
  0.129975E-01  0.134498E-01  0.139190E-01  0.144508E-01  0.150390E-01  0.155875E-01
  0.161066E-01  0.166052E-01  0.170209E-01  0.173472E-01  0.175424E-01  0.176241E-01
  0.153008E-01  0.152441E-01  0.151131E-01  0.149173E-01  0.146320E-01  0.143046E-01
  0.139538E-01  0.135836E-01  0.132154E-01  0.128621E-01  0.125622E-01  0.122701E-01
  0.120403E-01  0.118528E-01  0.116925E-01  0.115985E-01  0.115027E-01  0.114327E-01
  0.113883E-01  0.113391E-01  0.113003E-01  0.113260E-01  0.113017E-01  0.113017E-01
  0.113260E-01  0.113003E-01  0.113391E-01  0.113883E-01  0.114327E-01  0.115027E-01
  0.115985E-01  0.116925E-01  0.118528E-01  0.120403E-01  0.122701E-01  0.125622E-01
  0.128621E-01  0.132154E-01  0.135836E-01  0.139538E-01  0.143046E-01  0.146320E-01
  0.149173E-01  0.151131E-01  0.152441E-01  0.153008E-01  0.136468E-01  0.136138E-01
  0.135300E-01  0.134064E-01  0.132156E-01  0.130088E-01  0.127765E-01  0.125264E-01
  0.122778E-01  0.120435E-01  0.118981E-01  0.117455E-01  0.116043E-01  0.115029E-01
  0.114696E-01  0.114510E-01  0.113825E-01  0.113597E-01  0.113391E-01  0.113366E-01
  0.113482E-01  0.113570E-01  0.113671E-01  0.113671E-01  0.113570E-01  0.113482E-01
  0.113366E-01  0.113391E-01  0.113597E-01  0.113825E-01  0.114510E-01  0.114696E-01
  0.115029E-01  0.116043E-01  0.117455E-01  0.118981E-01  0.120435E-01  0.122778E-01
  0.125264E-01  0.127765E-01  0.130088E-01  0.132156E-01  0.134064E-01  0.135300E-01
  0.136138E-01  0.136468E-01  0.125383E-01  0.125106E-01  0.124600E-01  0.123756E-01
  0.122445E-01  0.121107E-01  0.119591E-01  0.118043E-01  0.116669E-01  0.115380E-01
  0.114507E-01  0.113510E-01  0.113045E-01  0.112941E-01  0.112677E-01  0.112636E-01
  0.112814E-01  0.112944E-01  0.113003E-01  0.113482E-01  0.113826E-01  0.113887E-01
  0.114205E-01  0.114205E-01  0.113887E-01  0.113826E-01  0.113482E-01  0.113003E-01
  0.112944E-01  0.112814E-01  0.112636E-01  0.112677E-01  0.112941E-01  0.113045E-01
  0.113510E-01  0.114507E-01  0.115380E-01  0.116669E-01  0.118043E-01  0.119591E-01
  0.121107E-01  0.122445E-01  0.123756E-01  0.124600E-01  0.125106E-01  0.125383E-01
  0.118555E-01  0.118151E-01  0.117896E-01  0.117471E-01  0.116470E-01  0.115655E-01
  0.114811E-01  0.113709E-01  0.112860E-01  0.112073E-01  0.111674E-01  0.111309E-01
  0.111085E-01  0.111131E-01  0.111481E-01  0.112052E-01  0.112247E-01  0.112446E-01
  0.113260E-01  0.113570E-01  0.113887E-01  0.114569E-01  0.114405E-01  0.114405E-01
  0.114569E-01  0.113887E-01  0.113570E-01  0.113260E-01  0.112446E-01  0.112247E-01
  0.112052E-01  0.111481E-01  0.111131E-01  0.111085E-01  0.111309E-01  0.111674E-01
  0.112073E-01  0.112860E-01  0.113709E-01  0.114811E-01  0.115655E-01  0.116470E-01
  0.117471E-01  0.117896E-01  0.118151E-01  0.118555E-01  0.115336E-01  0.114905E-01
  0.114753E-01  0.114535E-01  0.113692E-01  0.113106E-01  0.112551E-01  0.111495E-01
  0.110983E-01  0.110738E-01  0.110442E-01  0.110047E-01  0.110111E-01  0.110480E-01
  0.110873E-01  0.111202E-01  0.111836E-01  0.112506E-01  0.113017E-01  0.113671E-01
  0.114205E-01  0.114405E-01  0.114686E-01  0.114686E-01  0.114405E-01  0.114205E-01
  0.113671E-01  0.113017E-01  0.112506E-01  0.111836E-01  0.111202E-01  0.110873E-01
  0.110480E-01  0.110111E-01  0.110047E-01  0.110442E-01  0.110738E-01  0.110983E-01
  0.111495E-01  0.112551E-01  0.113106E-01  0.113692E-01  0.114535E-01  0.114753E-01
  0.114905E-01  0.115336E-01  0.115336E-01  0.114905E-01  0.114753E-01  0.114535E-01
  0.113692E-01  0.113106E-01  0.112551E-01  0.111495E-01  0.110983E-01  0.110738E-01
  0.110442E-01  0.110047E-01  0.110111E-01  0.110480E-01  0.110873E-01  0.111202E-01
  0.111836E-01  0.112506E-01  0.113017E-01  0.113671E-01  0.114205E-01  0.114405E-01
  0.114686E-01  0.114686E-01  0.114405E-01  0.114205E-01  0.113671E-01  0.113017E-01
  0.112506E-01  0.111836E-01  0.111202E-01  0.110873E-01  0.110480E-01  0.110111E-01
  0.110047E-01  0.110442E-01  0.110738E-01  0.110983E-01  0.111495E-01  0.112551E-01
  0.113106E-01  0.113692E-01  0.114535E-01  0.114753E-01  0.114905E-01  0.115336E-01
  0.118555E-01  0.118151E-01  0.117896E-01  0.117471E-01  0.116470E-01  0.115655E-01
  0.114811E-01  0.113709E-01  0.112860E-01  0.112073E-01  0.111674E-01  0.111309E-01
  0.111085E-01  0.111131E-01  0.111481E-01  0.112052E-01  0.112247E-01  0.112446E-01
  0.113260E-01  0.113570E-01  0.113887E-01  0.114569E-01  0.114405E-01  0.114405E-01
  0.114569E-01  0.113887E-01  0.113570E-01  0.113260E-01  0.112446E-01  0.112247E-01
  0.112052E-01  0.111481E-01  0.111131E-01  0.111085E-01  0.111309E-01  0.111674E-01
  0.112073E-01  0.112860E-01  0.113709E-01  0.114811E-01  0.115655E-01  0.116470E-01
  0.117471E-01  0.117896E-01  0.118151E-01  0.118555E-01  0.125383E-01  0.125106E-01
  0.124600E-01  0.123756E-01  0.122445E-01  0.121107E-01  0.119591E-01  0.118043E-01
  0.116669E-01  0.115380E-01  0.114507E-01  0.113510E-01  0.113045E-01  0.112941E-01
  0.112677E-01  0.112636E-01  0.112814E-01  0.112944E-01  0.113003E-01  0.113482E-01
  0.113826E-01  0.113887E-01  0.114205E-01  0.114205E-01  0.113887E-01  0.113826E-01
  0.113482E-01  0.113003E-01  0.112944E-01  0.112814E-01  0.112636E-01  0.112677E-01
  0.112941E-01  0.113045E-01  0.113510E-01  0.114507E-01  0.115380E-01  0.116669E-01
  0.118043E-01  0.119591E-01  0.121107E-01  0.122445E-01  0.123756E-01  0.124600E-01
  0.125106E-01  0.125383E-01  0.136468E-01  0.136138E-01  0.135300E-01  0.134064E-01
  0.132156E-01  0.130088E-01  0.127765E-01  0.125264E-01  0.122778E-01  0.120435E-01
  0.118981E-01  0.117455E-01  0.116043E-01  0.115029E-01  0.114696E-01  0.114510E-01
  0.113825E-01  0.113597E-01  0.113391E-01  0.113366E-01  0.113482E-01  0.113570E-01
  0.113671E-01  0.113671E-01  0.113570E-01  0.113482E-01  0.113366E-01  0.113391E-01
  0.113597E-01  0.113825E-01  0.114510E-01  0.114696E-01  0.115029E-01  0.116043E-01
  0.117455E-01  0.118981E-01  0.120435E-01  0.122778E-01  0.125264E-01  0.127765E-01
  0.130088E-01  0.132156E-01  0.134064E-01  0.135300E-01  0.136138E-01  0.136468E-01
  0.153008E-01  0.152441E-01  0.151131E-01  0.149173E-01  0.146320E-01  0.143046E-01
  0.139538E-01  0.135836E-01  0.132154E-01  0.128621E-01  0.125622E-01  0.122701E-01
  0.120403E-01  0.118528E-01  0.116925E-01  0.115985E-01  0.115027E-01  0.114327E-01
  0.113883E-01  0.113391E-01  0.113003E-01  0.113260E-01  0.113017E-01  0.113017E-01
  0.113260E-01  0.113003E-01  0.113391E-01  0.113883E-01  0.114327E-01  0.115027E-01
  0.115985E-01  0.116925E-01  0.118528E-01  0.120403E-01  0.122701E-01  0.125622E-01
  0.128621E-01  0.132154E-01  0.135836E-01  0.139538E-01  0.143046E-01  0.146320E-01
  0.149173E-01  0.151131E-01  0.152441E-01  0.153008E-01  0.176241E-01  0.175424E-01
  0.173472E-01  0.170209E-01  0.166052E-01  0.161066E-01  0.155875E-01  0.150390E-01
  0.144508E-01  0.139190E-01  0.134498E-01  0.129975E-01  0.126026E-01  0.122748E-01
  0.120205E-01  0.118257E-01  0.116757E-01  0.115733E-01  0.114327E-01  0.113597E-01
  0.112944E-01  0.112446E-01  0.112506E-01  0.112506E-01  0.112446E-01  0.112944E-01
  0.113597E-01  0.114327E-01  0.115733E-01  0.116757E-01  0.118257E-01  0.120205E-01
  0.122748E-01  0.126026E-01  0.129975E-01  0.134498E-01  0.139190E-01  0.144508E-01
  0.150390E-01  0.155875E-01  0.161066E-01  0.166052E-01  0.170209E-01  0.173472E-01
  0.175424E-01  0.176241E-01  0.211145E-01  0.209756E-01  0.206452E-01  0.201003E-01
  0.194268E-01  0.186176E-01  0.177742E-01  0.169543E-01  0.161259E-01  0.153208E-01
  0.145860E-01  0.139521E-01  0.133942E-01  0.128589E-01  0.124517E-01  0.121451E-01
  0.118584E-01  0.116757E-01  0.115027E-01  0.113825E-01  0.112814E-01  0.112247E-01
  0.111836E-01  0.111836E-01  0.112247E-01  0.112814E-01  0.113825E-01  0.115027E-01
  0.116757E-01  0.118584E-01  0.121451E-01  0.124517E-01  0.128589E-01  0.133942E-01
  0.139521E-01  0.145860E-01  0.153208E-01  0.161259E-01  0.169543E-01  0.177742E-01
  0.186176E-01  0.194268E-01  0.201003E-01  0.206452E-01  0.209756E-01  0.211145E-01
  0.263265E-01  0.261158E-01  0.255488E-01  0.246427E-01  0.235432E-01  0.222647E-01
  0.208964E-01  0.195513E-01  0.182884E-01  0.171253E-01  0.160977E-01  0.151540E-01
  0.143327E-01  0.136258E-01  0.130007E-01  0.125106E-01  0.121451E-01  0.118257E-01
  0.115985E-01  0.114510E-01  0.112636E-01  0.112052E-01  0.111202E-01  0.111202E-01
  0.112052E-01  0.112636E-01  0.114510E-01  0.115985E-01  0.118257E-01  0.121451E-01
  0.125106E-01  0.130007E-01  0.136258E-01  0.143327E-01  0.151540E-01  0.160977E-01
  0.171253E-01  0.182884E-01  0.195513E-01  0.208964E-01  0.222647E-01  0.235432E-01
  0.246427E-01  0.255488E-01  0.261158E-01  0.263265E-01  0.342900E-01  0.339783E-01
  0.330336E-01  0.315243E-01  0.296614E-01  0.275357E-01  0.253526E-01  0.232597E-01
  0.213107E-01  0.195237E-01  0.179664E-01  0.166561E-01  0.155265E-01  0.145371E-01
  0.137102E-01  0.130007E-01  0.124517E-01  0.120205E-01  0.116925E-01  0.114696E-01
  0.112677E-01  0.111481E-01  0.110873E-01  0.110873E-01  0.111481E-01  0.112677E-01
  0.114696E-01  0.116925E-01  0.120205E-01  0.124517E-01  0.130007E-01  0.137102E-01
  0.145371E-01  0.155265E-01  0.166561E-01  0.179664E-01  0.195237E-01  0.213107E-01
  0.232597E-01  0.253526E-01  0.275357E-01  0.296614E-01  0.315243E-01  0.330336E-01
  0.339783E-01  0.342900E-01  0.463787E-01  0.458281E-01  0.442288E-01  0.417674E-01
  0.387387E-01  0.353611E-01  0.318898E-01  0.285084E-01  0.254261E-01  0.227831E-01
  0.204731E-01  0.185379E-01  0.169695E-01  0.156379E-01  0.145371E-01  0.136258E-01
  0.128589E-01  0.122748E-01  0.118528E-01  0.115029E-01  0.112941E-01  0.111131E-01
  0.110480E-01  0.110480E-01  0.111131E-01  0.112941E-01  0.115029E-01  0.118528E-01
  0.122748E-01  0.128589E-01  0.136258E-01  0.145371E-01  0.156379E-01  0.169695E-01
  0.185379E-01  0.204731E-01  0.227831E-01  0.254261E-01  0.285084E-01  0.318898E-01
  0.353611E-01  0.387387E-01  0.417674E-01  0.442288E-01  0.458281E-01  0.463787E-01
  0.656279E-01  0.646217E-01  0.617987E-01  0.575198E-01  0.522877E-01  0.466822E-01
  0.411581E-01  0.359651E-01  0.312488E-01  0.271610E-01  0.237474E-01  0.209741E-01
  0.187197E-01  0.169695E-01  0.155265E-01  0.143327E-01  0.133942E-01  0.126026E-01
  0.120403E-01  0.116043E-01  0.113045E-01  0.111085E-01  0.110111E-01  0.110111E-01
  0.111085E-01  0.113045E-01  0.116043E-01  0.120403E-01  0.126026E-01  0.133942E-01
  0.143327E-01  0.155265E-01  0.169695E-01  0.187197E-01  0.209741E-01  0.237474E-01
  0.271610E-01  0.312488E-01  0.359651E-01  0.411581E-01  0.466822E-01  0.522877E-01
  0.575198E-01  0.617987E-01  0.646217E-01  0.656279E-01  0.981994E-01  0.962551E-01
  0.908392E-01  0.828829E-01  0.735288E-01  0.638745E-01  0.546564E-01  0.463330E-01
  0.391650E-01  0.331116E-01  0.280912E-01  0.241118E-01  0.209741E-01  0.185379E-01
  0.166561E-01  0.151540E-01  0.139521E-01  0.129975E-01  0.122701E-01  0.117455E-01
  0.113510E-01  0.111309E-01  0.110047E-01  0.110047E-01  0.111309E-01  0.113510E-01
  0.117455E-01  0.122701E-01  0.129975E-01  0.139521E-01  0.151540E-01  0.166561E-01
  0.185379E-01  0.209741E-01  0.241118E-01  0.280912E-01  0.331116E-01  0.391650E-01
  0.463330E-01  0.546564E-01  0.638745E-01  0.735288E-01  0.828829E-01  0.908392E-01
  0.962551E-01  0.981994E-01  0.157471E+00  0.153569E+00  0.142658E+00  0.126853E+00
  0.108801E+00  0.909219E-01  0.748729E-01  0.612667E-01  0.500190E-01  0.409630E-01
  0.337962E-01  0.280912E-01  0.237474E-01  0.204731E-01  0.179664E-01  0.160977E-01
  0.145860E-01  0.134498E-01  0.125622E-01  0.118981E-01  0.114507E-01  0.111674E-01
  0.110442E-01  0.110442E-01  0.111674E-01  0.114507E-01  0.118981E-01  0.125622E-01
  0.134498E-01  0.145860E-01  0.160977E-01  0.179664E-01  0.204731E-01  0.237474E-01
  0.280912E-01  0.337962E-01  0.409630E-01  0.500190E-01  0.612667E-01  0.748729E-01
  0.909219E-01  0.108801E+00  0.126853E+00  0.142658E+00  0.153569E+00  0.157471E+00
  0.267578E+00  0.259438E+00  0.236916E+00  0.205027E+00  0.169755E+00  0.135911E+00
  0.106549E+00  0.830537E-01  0.650548E-01  0.513251E-01  0.409630E-01  0.331116E-01
  0.271610E-01  0.227831E-01  0.195237E-01  0.171253E-01  0.153208E-01  0.139190E-01
  0.128621E-01  0.120435E-01  0.115380E-01  0.112073E-01  0.110738E-01  0.110738E-01
  0.112073E-01  0.115380E-01  0.120435E-01  0.128621E-01  0.139190E-01  0.153208E-01
  0.171253E-01  0.195237E-01  0.227831E-01  0.271610E-01  0.331116E-01  0.409630E-01
  0.513251E-01  0.650548E-01  0.830537E-01  0.106549E+00  0.135911E+00  0.169755E+00
  0.205027E+00  0.236916E+00  0.259438E+00  0.267578E+00  0.478508E+00  0.460802E+00
  0.412597E+00  0.346158E+00  0.275312E+00  0.210550E+00  0.157135E+00  0.116011E+00
  0.860898E-01  0.650548E-01  0.500190E-01  0.391650E-01  0.312488E-01  0.254261E-01
  0.213107E-01  0.182884E-01  0.161259E-01  0.144508E-01  0.132154E-01  0.122778E-01
  0.116669E-01  0.112860E-01  0.110983E-01  0.110983E-01  0.112860E-01  0.116669E-01
  0.122778E-01  0.132154E-01  0.144508E-01  0.161259E-01  0.182884E-01  0.213107E-01
  0.254261E-01  0.312488E-01  0.391650E-01  0.500190E-01  0.650548E-01  0.860898E-01
  0.116011E+00  0.157135E+00  0.210550E+00  0.275312E+00  0.346158E+00  0.412597E+00
  0.460802E+00  0.478508E+00  0.893469E+00  0.853240E+00  0.745949E+00  0.603653E+00
  0.459265E+00  0.333970E+00  0.236163E+00  0.165254E+00  0.116011E+00  0.830537E-01
  0.612667E-01  0.463330E-01  0.359651E-01  0.285084E-01  0.232597E-01  0.195513E-01
  0.169543E-01  0.150390E-01  0.135836E-01  0.125264E-01  0.118043E-01  0.113709E-01
  0.111495E-01  0.111495E-01  0.113709E-01  0.118043E-01  0.125264E-01  0.135836E-01
  0.150390E-01  0.169543E-01  0.195513E-01  0.232597E-01  0.285084E-01  0.359651E-01
  0.463330E-01  0.612667E-01  0.830537E-01  0.116011E+00  0.165254E+00  0.236163E+00
  0.333970E+00  0.459265E+00  0.603653E+00  0.745949E+00  0.853240E+00  0.893469E+00
  0.170328E+01  0.161549E+01  0.138176E+01  0.107580E+01  0.777137E+00  0.534373E+00
  0.357246E+00  0.236163E+00  0.157135E+00  0.106549E+00  0.748729E-01  0.546564E-01
  0.411581E-01  0.318898E-01  0.253526E-01  0.208964E-01  0.177742E-01  0.155875E-01
  0.139538E-01  0.127765E-01  0.119591E-01  0.114811E-01  0.112551E-01  0.112551E-01
  0.114811E-01  0.119591E-01  0.127765E-01  0.139538E-01  0.155875E-01  0.177742E-01
  0.208964E-01  0.253526E-01  0.318898E-01  0.411581E-01  0.546564E-01  0.748729E-01
  0.106549E+00  0.157135E+00  0.236163E+00  0.357246E+00  0.534373E+00  0.777137E+00
  0.107580E+01  0.138176E+01  0.161549E+01  0.170328E+01  0.305361E+01  0.289488E+01
  0.246460E+01  0.188542E+01  0.130936E+01  0.849288E+00  0.534373E+00  0.333970E+00
  0.210550E+00  0.135911E+00  0.909219E-01  0.638745E-01  0.466822E-01  0.353611E-01
  0.275357E-01  0.222647E-01  0.186176E-01  0.161066E-01  0.143046E-01  0.130088E-01
  0.121107E-01  0.115655E-01  0.113106E-01  0.113106E-01  0.115655E-01  0.121107E-01
  0.130088E-01  0.143046E-01  0.161066E-01  0.186176E-01  0.222647E-01  0.275357E-01
  0.353611E-01  0.466822E-01  0.638745E-01  0.909219E-01  0.135911E+00  0.210550E+00
  0.333970E+00  0.534373E+00  0.849288E+00  0.130936E+01  0.188542E+01  0.246460E+01
  0.289488E+01  0.305361E+01  0.480009E+01  0.457309E+01  0.393854E+01  0.303977E+01
  0.209451E+01  0.130936E+01  0.777137E+00  0.459265E+00  0.275312E+00  0.169755E+00
  0.108801E+00  0.735288E-01  0.522877E-01  0.387387E-01  0.296614E-01  0.235432E-01
  0.194268E-01  0.166052E-01  0.146320E-01  0.132156E-01  0.122445E-01  0.116470E-01
  0.113692E-01  0.113692E-01  0.116470E-01  0.122445E-01  0.132156E-01  0.146320E-01
  0.166052E-01  0.194268E-01  0.235432E-01  0.296614E-01  0.387387E-01  0.522877E-01
  0.735288E-01  0.108801E+00  0.169755E+00  0.275312E+00  0.459265E+00  0.777137E+00
  0.130936E+01  0.209451E+01  0.303977E+01  0.393854E+01  0.457309E+01  0.480009E+01
  0.649579E+01  0.624042E+01  0.548984E+01  0.434280E+01  0.303977E+01  0.188542E+01
  0.107580E+01  0.603653E+00  0.346158E+00  0.205027E+00  0.126853E+00  0.828829E-01
  0.575198E-01  0.417674E-01  0.315243E-01  0.246427E-01  0.201003E-01  0.170209E-01
  0.149173E-01  0.134064E-01  0.123756E-01  0.117471E-01  0.114535E-01  0.114535E-01
  0.117471E-01  0.123756E-01  0.134064E-01  0.149173E-01  0.170209E-01  0.201003E-01
  0.246427E-01  0.315243E-01  0.417674E-01  0.575198E-01  0.828829E-01  0.126853E+00
  0.205027E+00  0.346158E+00  0.603653E+00  0.107580E+01  0.188542E+01  0.303977E+01
  0.434280E+01  0.548984E+01  0.624042E+01  0.649579E+01  0.769281E+01  0.746391E+01
  0.673341E+01  0.548984E+01  0.393854E+01  0.246460E+01  0.138176E+01  0.745949E+00
  0.412597E+00  0.236916E+00  0.142658E+00  0.908392E-01  0.617987E-01  0.442288E-01
  0.330336E-01  0.255488E-01  0.206452E-01  0.173472E-01  0.151131E-01  0.135300E-01
  0.124600E-01  0.117896E-01  0.114753E-01  0.114753E-01  0.117896E-01  0.124600E-01
  0.135300E-01  0.151131E-01  0.173472E-01  0.206452E-01  0.255488E-01  0.330336E-01
  0.442288E-01  0.617987E-01  0.908392E-01  0.142658E+00  0.236916E+00  0.412597E+00
  0.745949E+00  0.138176E+01  0.246460E+01  0.393854E+01  0.548984E+01  0.673341E+01
  0.746391E+01  0.769281E+01  0.827487E+01  0.809859E+01  0.746391E+01  0.624042E+01
  0.457309E+01  0.289488E+01  0.161549E+01  0.853240E+00  0.460802E+00  0.259438E+00
  0.153569E+00  0.962551E-01  0.646217E-01  0.458281E-01  0.339783E-01  0.261158E-01
  0.209756E-01  0.175424E-01  0.152441E-01  0.136138E-01  0.125106E-01  0.118151E-01
  0.114905E-01  0.114905E-01  0.118151E-01  0.125106E-01  0.136138E-01  0.152441E-01